 &FCI NORB= 2,NELEC= 2,ORBSYM= 1, 1, 
 ISYM= 0 ,
 TREL=.FALSE.
 &END
   0.652098564398294   1   1   1   1
   0.433559205742139   2   2   1   1
  0.0794524212933156   2   1   2   1
  0.0794524212933156   1   2   2   1
  0.0794524212933156   2   1   1   2
  0.0794524212933156   1   2   1   2
   0.433559205742139   1   1   2   2
   0.385491477216981   2   2   2   2
-1.24944575908495   1   1   0   0
-0.54784553529554   2   2   0   0
0.719968994108844   0   0   0   0
